<?xml version="1.0" encoding="UTF-8"?>

<!-- generated on 2025-04-25 14:51:22 by Eclipse SUMO GUI Version 1.21.0
<sumoConfiguration xmlns:xsi="http://www.w3.org/2001/XMLSchema-instance" xsi:noNamespaceSchemaLocation="http://sumo.dlr.de/xsd/sumoConfiguration.xsd">

    <input>
        <net-file value="src/networks/acosta_persontrips/acosta_peds.net.xml"/>
        <route-files value="src/networks/acosta_persontrips/acosta.rou.xml,src/networks/acosta_persontrips/persontrips.rou.xml"/>
        <additional-files value="src/networks/acosta_persontrips/acosta_vtypes.add.xml,src/networks/acosta_persontrips/acosta_bus_stops.add.xml,src/networks/acosta_persontrips/acosta_tls2.add.xml"/>
    </input>

    <output>
        <tripinfo-output value="src/networks/acosta_persontrips/tripinfos.xml"/>
        <stop-output value="src/networks/acosta_persontrips/stops.xml"/>
    </output>

    <report>
        <log value="src/networks/acosta_persontrips/sumo_log.txt"/>
        <no-step-log value="true"/>
    </report>

    <traci_server>
        <remote-port value="58175"/>
    </traci_server>

    <random_number>
        <random value="false"/>
    </random_number>

    <gui_only>
        <gui-settings-file value="src/networks/acosta_persontrips/settings.gui.xml"/>
        <quit-on-end value="true"/>
        <start value="true"/>
    </gui_only>

</sumoConfiguration>
-->

<tripinfos xmlns:xsi="http://www.w3.org/2001/XMLSchema-instance" xsi:noNamespaceSchemaLocation="http://sumo.dlr.de/xsd/tripinfo_file.xsd">
</tripinfos>
