<?xml version="1.0" encoding="UTF-8"?>

<!-- generated on 2025-01-30 20:51:09 by Eclipse SUMO GUI Version 1.21.0
<sumoConfiguration xmlns:xsi="http://www.w3.org/2001/XMLSchema-instance" xsi:noNamespaceSchemaLocation="http://sumo.dlr.de/xsd/sumoConfiguration.xsd">

    <input>
        <net-file value="src\networks\acosta_persontrips\acosta_peds.net.xml"/>
        <route-files value="src\networks\acosta_persontrips\acosta.rou.xml,src\networks\acosta_persontrips\persontrips.rou.xml"/>
        <additional-files value="src\networks\acosta_persontrips\acosta_vtypes.add.xml,src\networks\acosta_persontrips\acosta_bus_stops.add.xml,src\networks\acosta_persontrips\acosta_tls2.add.xml"/>
    </input>

    <output>
        <tripinfo-output value="src\networks\acosta_persontrips\tripinfos.xml"/>
        <stop-output value="src\networks\acosta_persontrips\stops.xml"/>
    </output>

    <report>
        <log value="src\networks\acosta_persontrips\sumo_log.txt"/>
        <no-step-log value="true"/>
    </report>

    <traci_server>
        <remote-port value="55993"/>
    </traci_server>

    <gui_only>
        <gui-settings-file value="src\networks\acosta_persontrips\settings.gui.xml"/>
    </gui_only>

</sumoConfiguration>
-->

<tripinfos xmlns:xsi="http://www.w3.org/2001/XMLSchema-instance" xsi:noNamespaceSchemaLocation="http://sumo.dlr.de/xsd/tripinfo_file.xsd">
    <personinfo id="13" depart="7.00" type="DEFAULT_PEDTYPE" speedFactor="1.25" duration="47.00" waitingTime="0.00" timeLoss="4.66" traveltime="47.00">
        <walk depart="7.00" departPos="0.00" arrival="54.00" arrivalPos="73.53" duration="47.00" routeLength="73.53" timeLoss="4.66" maxSpeed="1.74"/>
    </personinfo>
    <personinfo id="127" depart="64.00" type="DEFAULT_PEDTYPE" speedFactor="0.96" duration="12.00" waitingTime="0.00" timeLoss="1.68" traveltime="12.00">
        <walk depart="64.00" departPos="0.00" arrival="76.00" arrivalPos="13.78" duration="12.00" routeLength="13.78" timeLoss="1.68" maxSpeed="1.34"/>
    </personinfo>
    <tripinfo id="Togliatti_2_8" depart="11.00" departLane="85_1" departPos="0.00" departSpeed="0.00" departDelay="0.00" arrival="110.00" arrivalLane="77[1][1]_1" arrivalPos="462.90" arrivalSpeed="13.35" duration="99.00" routeLength="1147.14" waitingTime="0.00" waitingCount="0" stopTime="0.00" timeLoss="16.70" rerouteNo="0" devices="tripinfo_Togliatti_2_8" vType="passenger1" speedFactor="1.03" vaporized=""/>
    <personinfo id="36" depart="18.00" type="DEFAULT_PEDTYPE" speedFactor="0.90" duration="93.00" waitingTime="0.00" timeLoss="9.61" traveltime="93.00">
        <walk depart="18.00" departPos="0.00" arrival="111.00" arrivalPos="3.72" duration="93.00" routeLength="104.80" timeLoss="9.61" maxSpeed="1.26"/>
    </personinfo>
    <tripinfo id="Costa_1_4" depart="11.00" departLane="78[0]_1" departPos="0.00" departSpeed="0.00" departDelay="1.00" arrival="113.00" arrivalLane="86_3" arrivalPos="320.14" arrivalSpeed="13.06" duration="102.00" routeLength="1184.61" waitingTime="0.00" waitingCount="0" stopTime="0.00" timeLoss="16.67" rerouteNo="0" devices="tripinfo_Costa_1_4" vType="passenger4" speedFactor="1.02" vaporized=""/>
    <personinfo id="8" depart="4.00" type="DEFAULT_PEDTYPE" speedFactor="0.96" duration="112.00" waitingTime="0.00" timeLoss="11.93" traveltime="112.00">
        <walk depart="4.00" departPos="0.00" arrival="116.00" arrivalPos="59.95" duration="112.00" routeLength="133.78" timeLoss="11.93" maxSpeed="1.34"/>
    </personinfo>
    <tripinfo id="Costa_1_2" depart="6.00" departLane="78[0]_1" departPos="0.00" departSpeed="0.00" departDelay="1.00" arrival="116.00" arrivalLane="86_1" arrivalPos="320.14" arrivalSpeed="11.02" duration="110.00" routeLength="1191.00" waitingTime="0.00" waitingCount="0" stopTime="0.00" timeLoss="12.18" rerouteNo="0" devices="tripinfo_Costa_1_2" vType="passenger2b" speedFactor="0.89" vaporized=""/>
    <tripinfo id="Costa_12_0" depart="0.00" departLane="78[0]_1" departPos="0.00" departSpeed="0.00" departDelay="0.00" arrival="120.00" arrivalLane="136_1" arrivalPos="186.29" arrivalSpeed="14.27" duration="120.00" routeLength="1415.82" waitingTime="3.00" waitingCount="1" stopTime="0.00" timeLoss="23.31" rerouteNo="0" devices="tripinfo_Costa_12_0" vType="passenger1" speedFactor="1.08" vaporized=""/>
    <tripinfo id="Costa_12_1" depart="3.00" departLane="78[0]_1" departPos="0.00" departSpeed="0.00" departDelay="1.00" arrival="121.00" arrivalLane="136_1" arrivalPos="186.29" arrivalSpeed="14.28" duration="118.00" routeLength="1415.82" waitingTime="1.00" waitingCount="1" stopTime="0.00" timeLoss="22.95" rerouteNo="0" devices="tripinfo_Costa_12_1" vType="passenger2b" speedFactor="1.09" vaporized=""/>
    <tripinfo id="Audinot_7_0" depart="0.00" departLane="131_1" departPos="0.00" departSpeed="0.00" departDelay="0.00" arrival="123.00" arrivalLane="209_1" arrivalPos="395.59" arrivalSpeed="12.48" duration="123.00" routeLength="873.42" waitingTime="44.00" waitingCount="1" stopTime="0.00" timeLoss="57.07" rerouteNo="0" devices="tripinfo_Audinot_7_0" vType="passenger4" speedFactor="0.98" vaporized=""/>
    <personinfo id="130" depart="65.00" type="DEFAULT_PEDTYPE" speedFactor="0.97" duration="61.00" waitingTime="0.00" timeLoss="6.19" traveltime="61.00">
        <walk depart="65.00" departPos="0.00" arrival="126.00" arrivalPos="73.89" duration="61.00" routeLength="73.89" timeLoss="6.19" maxSpeed="1.35"/>
    </personinfo>
    <tripinfo id="Costa_3_21" depart="56.00" departLane="78[0]_1" departPos="0.00" departSpeed="0.00" departDelay="2.00" arrival="129.00" arrivalLane="14_1" arrivalPos="75.79" arrivalSpeed="14.94" duration="73.00" routeLength="848.56" waitingTime="0.00" waitingCount="0" stopTime="0.00" timeLoss="16.82" rerouteNo="0" devices="tripinfo_Costa_3_21" vType="passenger1" speedFactor="1.13" vaporized=""/>
    <tripinfo id="Costa_12_3" depart="8.00" departLane="78[0]_1" departPos="0.00" departSpeed="0.00" departDelay="1.00" arrival="132.00" arrivalLane="136_1" arrivalPos="186.29" arrivalSpeed="13.88" duration="124.00" routeLength="1413.00" waitingTime="0.00" waitingCount="0" stopTime="0.00" timeLoss="23.30" rerouteNo="0" devices="tripinfo_Costa_12_3" vType="passenger1" speedFactor="1.03" vaporized=""/>
    <personinfo id="64" depart="32.00" type="DEFAULT_PEDTYPE" speedFactor="1.04" duration="109.00" waitingTime="0.00" timeLoss="10.02" traveltime="109.00">
        <walk depart="32.00" departPos="0.00" arrival="141.00" arrivalPos="46.52" duration="109.00" routeLength="142.93" timeLoss="10.02" maxSpeed="1.44"/>
    </personinfo>
    <tripinfo id="Costa_12_7" depart="18.00" departLane="78[0]_1" departPos="0.00" departSpeed="0.00" departDelay="0.00" arrival="143.00" arrivalLane="136_1" arrivalPos="186.29" arrivalSpeed="12.34" duration="125.00" routeLength="1413.00" waitingTime="0.00" waitingCount="0" stopTime="0.00" timeLoss="16.28" rerouteNo="0" devices="tripinfo_Costa_12_7" vType="passenger3" speedFactor="0.96" vaporized=""/>
    <tripinfo id="Costa_12_9" depart="23.00" departLane="78[0]_1" departPos="0.00" departSpeed="0.00" departDelay="0.00" arrival="144.00" arrivalLane="136_1" arrivalPos="186.29" arrivalSpeed="13.88" duration="121.00" routeLength="1415.82" waitingTime="0.00" waitingCount="0" stopTime="0.00" timeLoss="18.75" rerouteNo="0" devices="tripinfo_Costa_12_9" vType="passenger1" speedFactor="1.02" vaporized=""/>
    <tripinfo id="Costa_12_11" depart="28.00" departLane="78[0]_1" departPos="0.00" departSpeed="0.00" departDelay="0.00" arrival="147.00" arrivalLane="136_1" arrivalPos="186.29" arrivalSpeed="13.98" duration="119.00" routeLength="1415.82" waitingTime="0.00" waitingCount="0" stopTime="0.00" timeLoss="17.07" rerouteNo="0" devices="tripinfo_Costa_12_11" vType="passenger1" speedFactor="1.02" vaporized=""/>
    <tripinfo id="Costa_12_13" depart="33.00" departLane="78[0]_1" departPos="0.00" departSpeed="0.00" departDelay="0.00" arrival="149.00" arrivalLane="136_1" arrivalPos="186.29" arrivalSpeed="14.08" duration="116.00" routeLength="1413.00" waitingTime="0.00" waitingCount="0" stopTime="0.00" timeLoss="20.45" rerouteNo="0" devices="tripinfo_Costa_12_13" vType="passenger2b" speedFactor="1.10" vaporized=""/>
    <tripinfo id="Turati_3_2" depart="69.00" departLane="195_1" departPos="0.00" departSpeed="0.00" departDelay="0.00" arrival="149.00" arrivalLane="14_1" arrivalPos="75.79" arrivalSpeed="13.16" duration="80.00" routeLength="946.16" waitingTime="0.00" waitingCount="0" stopTime="0.00" timeLoss="10.89" rerouteNo="0" devices="tripinfo_Turati_3_2" vType="ignoring1" speedFactor="1.00" vaporized=""/>
    <personinfo id="132" depart="66.00" type="DEFAULT_PEDTYPE" speedFactor="0.98" duration="92.00" waitingTime="0.00" timeLoss="9.42" traveltime="92.00">
        <walk depart="66.00" departPos="0.00" arrival="158.00" arrivalPos="0.71" duration="92.00" routeLength="112.03" timeLoss="9.42" maxSpeed="1.36"/>
    </personinfo>
    <tripinfo id="Pepoli_3_0" depart="0.00" departLane="210_3" departPos="0.00" departSpeed="0.00" departDelay="0.00" arrival="160.00" arrivalLane="14_1" arrivalPos="75.79" arrivalSpeed="13.88" duration="160.00" routeLength="1939.84" waitingTime="0.00" waitingCount="0" stopTime="0.00" timeLoss="18.51" rerouteNo="0" devices="tripinfo_Pepoli_3_0" vType="ignoring2b" speedFactor="1.00" vaporized=""/>
    <tripinfo id="Togliatti_12_15" depart="21.00" departLane="85_3" departPos="0.00" departSpeed="0.00" departDelay="0.00" arrival="160.00" arrivalLane="136_1" arrivalPos="186.29" arrivalSpeed="11.87" duration="139.00" routeLength="909.46" waitingTime="52.00" waitingCount="1" stopTime="0.00" timeLoss="65.73" rerouteNo="0" devices="tripinfo_Togliatti_12_15" vType="passenger3" speedFactor="0.91" vaporized=""/>
    <personinfo id="167" depart="84.00" type="DEFAULT_PEDTYPE" speedFactor="1.06" duration="77.00" waitingTime="0.00" timeLoss="37.66" traveltime="77.00">
        <walk depart="84.00" departPos="0.00" arrival="161.00" arrivalPos="0.17" duration="77.00" routeLength="57.82" timeLoss="37.66" maxSpeed="1.47"/>
    </personinfo>
    <tripinfo id="Pepoli_8_16" depart="27.00" departLane="210_1" departPos="0.00" departSpeed="0.00" departDelay="0.00" arrival="162.00" arrivalLane="134b_1" arrivalPos="156.95" arrivalSpeed="12.82" duration="135.00" routeLength="692.45" waitingTime="57.00" waitingCount="2" stopTime="0.00" timeLoss="83.27" rerouteNo="0" devices="tripinfo_Pepoli_8_16" vType="passenger1" speedFactor="1.00" vaporized=""/>
    <tripinfo id="Togliatti_12_24" depart="34.00" departLane="85_3" departPos="0.00" departSpeed="0.00" departDelay="0.00" arrival="163.00" arrivalLane="136_1" arrivalPos="186.29" arrivalSpeed="13.04" duration="129.00" routeLength="909.46" waitingTime="39.00" waitingCount="1" stopTime="0.00" timeLoss="57.86" rerouteNo="0" devices="tripinfo_Togliatti_12_24" vType="passenger1" speedFactor="0.95" vaporized=""/>
    <tripinfo id="Pepoli_3_2" depart="3.00" departLane="210_3" departPos="0.00" departSpeed="0.00" departDelay="0.00" arrival="164.00" arrivalLane="14_1" arrivalPos="75.79" arrivalSpeed="12.79" duration="161.00" routeLength="1939.84" waitingTime="0.00" waitingCount="0" stopTime="0.00" timeLoss="18.53" rerouteNo="0" devices="tripinfo_Pepoli_3_2" vType="ignoring1" speedFactor="1.00" vaporized=""/>
    <tripinfo id="Pepoli_8_21" depart="36.00" departLane="210_1" departPos="0.00" departSpeed="0.00" departDelay="0.00" arrival="164.00" arrivalLane="134b_1" arrivalPos="156.95" arrivalSpeed="17.17" duration="128.00" routeLength="692.45" waitingTime="56.00" waitingCount="3" stopTime="0.00" timeLoss="86.66" rerouteNo="0" devices="tripinfo_Pepoli_8_21" vType="passenger1" speedFactor="1.25" vaporized=""/>
    <tripinfo id="Togliatti_12_48" depart="68.00" departLane="85_3" departPos="0.00" departSpeed="0.00" departDelay="0.00" arrival="164.00" arrivalLane="136_1" arrivalPos="186.29" arrivalSpeed="14.07" duration="96.00" routeLength="909.46" waitingTime="9.00" waitingCount="1" stopTime="0.00" timeLoss="31.49" rerouteNo="0" devices="tripinfo_Togliatti_12_48" vType="passenger2a" speedFactor="1.04" vaporized=""/>
    <tripinfo id="Togliatti_12_59" depart="84.00" departLane="85_3" departPos="0.00" departSpeed="0.00" departDelay="0.00" arrival="166.00" arrivalLane="136_1" arrivalPos="186.29" arrivalSpeed="14.14" duration="82.00" routeLength="909.46" waitingTime="0.00" waitingCount="0" stopTime="0.00" timeLoss="21.67" rerouteNo="0" devices="tripinfo_Togliatti_12_59" vType="passenger1" speedFactor="1.12" vaporized=""/>
    <tripinfo id="Pepoli_8_23" depart="39.00" departLane="210_1" departPos="0.00" departSpeed="0.00" departDelay="0.00" arrival="167.00" arrivalLane="134b_1" arrivalPos="156.95" arrivalSpeed="14.90" duration="128.00" routeLength="692.45" waitingTime="52.00" waitingCount="2" stopTime="0.00" timeLoss="82.90" rerouteNo="0" devices="tripinfo_Pepoli_8_23" vType="passenger1" speedFactor="1.13" vaporized=""/>
    <personinfo id="26" depart="13.00" type="DEFAULT_PEDTYPE" speedFactor="0.95" duration="155.00" waitingTime="0.00" timeLoss="13.92" traveltime="155.00">
        <walk depart="13.00" departPos="0.00" arrival="168.00" arrivalPos="57.63" duration="155.00" routeLength="185.42" timeLoss="13.92" maxSpeed="1.31"/>
    </personinfo>
    <tripinfo id="Vittorio_Veneto_1_4" depart="18.00" departLane="224[0]_1" departPos="0.00" departSpeed="0.00" departDelay="0.00" arrival="170.00" arrivalLane="86_1" arrivalPos="320.14" arrivalSpeed="13.44" duration="152.00" routeLength="1140.41" waitingTime="50.00" waitingCount="1" stopTime="0.00" timeLoss="67.79" rerouteNo="0" devices="tripinfo_Vittorio_Veneto_1_4" vType="passenger5" speedFactor="1.00" vaporized=""/>
    <tripinfo id="Pepoli_8_25" depart="42.00" departLane="210_1" departPos="0.00" departSpeed="0.00" departDelay="0.00" arrival="171.00" arrivalLane="134b_1" arrivalPos="156.95" arrivalSpeed="13.49" duration="129.00" routeLength="692.45" waitingTime="50.00" waitingCount="2" stopTime="0.00" timeLoss="79.03" rerouteNo="0" devices="tripinfo_Pepoli_8_25" vType="passenger2a" speedFactor="1.03" vaporized=""/>
    <tripinfo id="Silvani_7_2" depart="4.00" departLane="203[0]_2" departPos="0.00" departSpeed="0.00" departDelay="0.00" arrival="172.00" arrivalLane="209_1" arrivalPos="395.59" arrivalSpeed="14.20" duration="168.00" routeLength="1463.24" waitingTime="50.00" waitingCount="2" stopTime="0.00" timeLoss="71.58" rerouteNo="0" devices="tripinfo_Silvani_7_2" vType="passenger1" speedFactor="1.10" vaporized=""/>
    <tripinfo id="Pepoli_8_28" depart="48.00" departLane="210_1" departPos="0.00" departSpeed="0.00" departDelay="0.00" arrival="172.00" arrivalLane="134b_1" arrivalPos="156.95" arrivalSpeed="15.12" duration="124.00" routeLength="692.45" waitingTime="44.00" waitingCount="2" stopTime="0.00" timeLoss="78.45" rerouteNo="0" devices="tripinfo_Pepoli_8_28" vType="passenger3" speedFactor="1.13" vaporized=""/>
    <tripinfo id="Silvani_11_1" depart="2.00" departLane="203[0]_1" departPos="0.00" departSpeed="0.00" departDelay="0.00" arrival="173.00" arrivalLane="114_1" arrivalPos="694.55" arrivalSpeed="12.31" duration="171.00" routeLength="1114.58" waitingTime="69.00" waitingCount="1" stopTime="0.00" timeLoss="86.58" rerouteNo="0" devices="tripinfo_Silvani_11_1" vType="passenger5" speedFactor="0.96" vaporized=""/>
    <tripinfo id="Silvani_11_8" depart="18.00" departLane="203[0]_1" departPos="0.00" departSpeed="0.00" departDelay="0.00" arrival="173.00" arrivalLane="114_2" arrivalPos="694.55" arrivalSpeed="13.65" duration="155.00" routeLength="1114.58" waitingTime="58.00" waitingCount="1" stopTime="0.00" timeLoss="73.92" rerouteNo="0" devices="tripinfo_Silvani_11_8" vType="passenger1" speedFactor="1.00" vaporized=""/>
    <tripinfo id="Silvani_11_14" depart="33.00" departLane="203[0]_1" departPos="0.00" departSpeed="0.00" departDelay="0.00" arrival="173.00" arrivalLane="114_3" arrivalPos="694.55" arrivalSpeed="15.83" duration="140.00" routeLength="1114.58" waitingTime="51.00" waitingCount="1" stopTime="0.00" timeLoss="69.26" rerouteNo="0" devices="tripinfo_Silvani_11_14" vType="passenger3" speedFactor="1.14" vaporized=""/>
    <tripinfo id="Silvani_11_12" depart="28.00" departLane="203[0]_1" departPos="0.00" departSpeed="0.00" departDelay="0.00" arrival="176.00" arrivalLane="114_1" arrivalPos="694.55" arrivalSpeed="13.04" duration="148.00" routeLength="1114.58" waitingTime="54.00" waitingCount="1" stopTime="0.00" timeLoss="67.28" rerouteNo="0" devices="tripinfo_Silvani_11_12" vType="passenger1" speedFactor="1.00" vaporized=""/>
    <tripinfo id="Silvani_11_13" depart="31.00" departLane="203[0]_1" departPos="0.00" departSpeed="0.00" departDelay="1.00" arrival="176.00" arrivalLane="114_3" arrivalPos="694.55" arrivalSpeed="13.70" duration="145.00" routeLength="1114.58" waitingTime="52.00" waitingCount="1" stopTime="0.00" timeLoss="68.92" rerouteNo="0" devices="tripinfo_Silvani_11_13" vType="passenger1" speedFactor="1.06" vaporized=""/>
    <tripinfo id="Togliatti_71_0" depart="0.00" departLane="85_2" departPos="0.00" departSpeed="0.00" departDelay="0.00" arrival="177.00" arrivalLane="209_1" arrivalPos="395.59" arrivalSpeed="12.70" duration="177.00" routeLength="2026.42" waitingTime="11.00" waitingCount="1" stopTime="0.00" timeLoss="28.96" rerouteNo="0" devices="tripinfo_Togliatti_71_0" vType="passenger2b" speedFactor="1.00" vaporized=""/>
    <tripinfo id="Togliatti_3_18" depart="25.00" departLane="85_1" departPos="0.00" departSpeed="0.00" departDelay="0.00" arrival="177.00" arrivalLane="14_1" arrivalPos="75.79" arrivalSpeed="14.81" duration="152.00" routeLength="1110.56" waitingTime="53.00" waitingCount="3" stopTime="0.00" timeLoss="78.21" rerouteNo="0" devices="tripinfo_Togliatti_3_18" vType="passenger2b" speedFactor="1.12" vaporized=""/>
    <tripinfo id="Silvani_11_9" depart="21.00" departLane="203[0]_1" departPos="0.00" departSpeed="0.00" departDelay="0.00" arrival="179.00" arrivalLane="114_2" arrivalPos="694.55" arrivalSpeed="12.65" duration="158.00" routeLength="1114.58" waitingTime="57.00" waitingCount="1" stopTime="0.00" timeLoss="72.12" rerouteNo="0" devices="tripinfo_Silvani_11_9" vType="passenger1" speedFactor="0.94" vaporized=""/>
    <tripinfo id="Togliatti_3_31" depart="44.00" departLane="85_1" departPos="0.00" departSpeed="0.00" departDelay="0.00" arrival="179.00" arrivalLane="14_1" arrivalPos="75.79" arrivalSpeed="13.79" duration="135.00" routeLength="1110.56" waitingTime="33.00" waitingCount="1" stopTime="0.00" timeLoss="54.74" rerouteNo="0" devices="tripinfo_Togliatti_3_31" vType="passenger1" speedFactor="1.04" vaporized=""/>
    <tripinfo id="Silvani_11_0" depart="0.00" departLane="203[0]_1" departPos="0.00" departSpeed="0.00" departDelay="0.00" arrival="180.00" arrivalLane="114_1" arrivalPos="694.55" arrivalSpeed="11.32" duration="180.00" routeLength="1114.58" waitingTime="70.00" waitingCount="1" stopTime="0.00" timeLoss="82.40" rerouteNo="0" devices="tripinfo_Silvani_11_0" vType="passenger3" speedFactor="0.83" vaporized=""/>
    <tripinfo id="Silvani_11_16" depart="37.00" departLane="203[0]_1" departPos="0.00" departSpeed="0.00" departDelay="0.00" arrival="181.00" arrivalLane="114_2" arrivalPos="694.55" arrivalSpeed="13.46" duration="144.00" routeLength="1114.58" waitingTime="49.00" waitingCount="1" stopTime="0.00" timeLoss="64.44" rerouteNo="0" devices="tripinfo_Silvani_11_16" vType="passenger3" speedFactor="1.02" vaporized=""/>
    <tripinfo id="Togliatti_2_32" depart="47.00" departLane="85_1" departPos="0.00" departSpeed="0.00" departDelay="2.00" arrival="181.00" arrivalLane="77[1][1]_1" arrivalPos="462.90" arrivalSpeed="13.48" duration="134.00" routeLength="1147.14" waitingTime="33.00" waitingCount="2" stopTime="0.00" timeLoss="52.27" rerouteNo="0" devices="tripinfo_Togliatti_2_32" vType="passenger3" speedFactor="1.04" vaporized=""/>
    <tripinfo id="Silvani_11_24" depart="57.00" departLane="203[0]_1" departPos="0.00" departSpeed="0.00" departDelay="1.00" arrival="183.00" arrivalLane="114_2" arrivalPos="694.55" arrivalSpeed="13.57" duration="126.00" routeLength="1114.58" waitingTime="32.00" waitingCount="1" stopTime="0.00" timeLoss="50.00" rerouteNo="0" devices="tripinfo_Silvani_11_24" vType="passenger1" speedFactor="1.06" vaporized=""/>
    <tripinfo id="Silvani_11_27" depart="63.00" departLane="203[0]_1" departPos="0.00" departSpeed="0.00" departDelay="0.00" arrival="185.00" arrivalLane="114_2" arrivalPos="694.55" arrivalSpeed="14.37" duration="122.00" routeLength="1114.58" waitingTime="31.00" waitingCount="1" stopTime="0.00" timeLoss="46.65" rerouteNo="0" devices="tripinfo_Silvani_11_27" vType="passenger2a" speedFactor="1.07" vaporized=""/>
    <tripinfo id="Silvani_7_3" depart="7.00" departLane="203[0]_1" departPos="0.00" departSpeed="0.00" departDelay="0.00" arrival="186.00" arrivalLane="209_1" arrivalPos="395.59" arrivalSpeed="15.71" duration="179.00" routeLength="1461.78" waitingTime="72.00" waitingCount="1" stopTime="0.00" timeLoss="85.12" rerouteNo="0" devices="tripinfo_Silvani_7_3" vType="passenger1" speedFactor="1.13" vaporized=""/>
    <tripinfo id="Silvani_11_17" depart="40.00" departLane="203[0]_1" departPos="0.00" departSpeed="0.00" departDelay="0.00" arrival="186.00" arrivalLane="114_1" arrivalPos="694.55" arrivalSpeed="11.75" duration="146.00" routeLength="1114.58" waitingTime="46.00" waitingCount="1" stopTime="0.00" timeLoss="60.63" rerouteNo="0" devices="tripinfo_Silvani_11_17" vType="passenger3" speedFactor="0.94" vaporized=""/>
    <tripinfo id="XXI_Aprile_2_12" depart="42.00" departLane="13_1" departPos="0.00" departSpeed="0.00" departDelay="0.00" arrival="186.00" arrivalLane="77[1][1]_1" arrivalPos="462.90" arrivalSpeed="14.17" duration="144.00" routeLength="977.81" waitingTime="46.00" waitingCount="3" stopTime="0.00" timeLoss="78.27" rerouteNo="0" devices="tripinfo_XXI_Aprile_2_12" vType="passenger4" speedFactor="1.10" vaporized=""/>
    <tripinfo id="Costa_3_33" depart="90.00" departLane="78[0]_1" departPos="0.00" departSpeed="0.00" departDelay="4.00" arrival="186.00" arrivalLane="14_1" arrivalPos="75.79" arrivalSpeed="11.93" duration="96.00" routeLength="848.56" waitingTime="3.00" waitingCount="1" stopTime="0.00" timeLoss="30.83" rerouteNo="0" devices="tripinfo_Costa_3_33" vType="passenger2b" speedFactor="0.95" vaporized=""/>
    <tripinfo id="Vittorio_Veneto_1_10" depart="45.00" departLane="224[0]_1" departPos="0.00" departSpeed="0.00" departDelay="0.00" arrival="187.00" arrivalLane="86_1" arrivalPos="320.14" arrivalSpeed="12.88" duration="142.00" routeLength="1140.41" waitingTime="45.00" waitingCount="1" stopTime="0.00" timeLoss="59.40" rerouteNo="0" devices="tripinfo_Vittorio_Veneto_1_10" vType="passenger1" speedFactor="1.01" vaporized=""/>
    <tripinfo id="Silvani_11_32" depart="76.00" departLane="203[0]_1" departPos="0.00" departSpeed="0.00" departDelay="1.00" arrival="188.00" arrivalLane="114_2" arrivalPos="694.55" arrivalSpeed="14.02" duration="112.00" routeLength="1114.58" waitingTime="19.00" waitingCount="1" stopTime="0.00" timeLoss="33.88" rerouteNo="0" devices="tripinfo_Silvani_11_32" vType="passenger5" speedFactor="1.04" vaporized=""/>
    <tripinfo id="Silvani_11_23" depart="54.00" departLane="203[0]_1" departPos="0.00" departSpeed="0.00" departDelay="0.00" arrival="190.00" arrivalLane="114_1" arrivalPos="694.55" arrivalSpeed="12.16" duration="136.00" routeLength="1114.58" waitingTime="33.00" waitingCount="1" stopTime="0.00" timeLoss="47.96" rerouteNo="0" devices="tripinfo_Silvani_11_23" vType="passenger3" speedFactor="0.91" vaporized=""/>
    <tripinfo id="Silvani_11_33" depart="79.00" departLane="203[0]_1" departPos="0.00" departSpeed="0.00" departDelay="2.00" arrival="190.00" arrivalLane="114_2" arrivalPos="694.55" arrivalSpeed="14.37" duration="111.00" routeLength="1114.58" waitingTime="16.00" waitingCount="1" stopTime="0.00" timeLoss="33.19" rerouteNo="0" devices="tripinfo_Silvani_11_33" vType="passenger1" speedFactor="1.04" vaporized=""/>
    <tripinfo id="Costa_3_38" depart="104.00" departLane="78[0]_1" departPos="0.00" departSpeed="0.00" departDelay="5.00" arrival="190.00" arrivalLane="14_1" arrivalPos="75.79" arrivalSpeed="12.93" duration="86.00" routeLength="848.56" waitingTime="1.00" waitingCount="1" stopTime="0.00" timeLoss="20.25" rerouteNo="0" devices="tripinfo_Costa_3_38" vType="passenger1" speedFactor="0.96" vaporized=""/>
    <personinfo id="102" depart="51.00" type="DEFAULT_PEDTYPE" speedFactor="1.08" duration="142.00" waitingTime="0.00" timeLoss="14.82" traveltime="142.00">
        <walk depart="51.00" departPos="0.00" arrival="193.00" arrivalPos="44.38" duration="142.00" routeLength="191.13" timeLoss="14.82" maxSpeed="1.50"/>
    </personinfo>
    <tripinfo id="Audinot_10_2" depart="42.00" departLane="131_1" departPos="0.00" departSpeed="0.00" departDelay="0.00" arrival="194.00" arrivalLane="204[1][1]_1" arrivalPos="433.07" arrivalSpeed="12.28" duration="152.00" routeLength="1642.14" waitingTime="0.00" waitingCount="0" stopTime="0.00" timeLoss="16.72" rerouteNo="0" devices="tripinfo_Audinot_10_2" vType="passenger2b" speedFactor="0.89" vaporized=""/>
    <personinfo id="301" depart="151.00" type="DEFAULT_PEDTYPE" speedFactor="1.10" duration="44.00" waitingTime="0.00" timeLoss="8.31" traveltime="44.00">
        <walk depart="151.00" departPos="0.00" arrival="195.00" arrivalPos="34.74" duration="44.00" routeLength="54.60" timeLoss="8.31" maxSpeed="1.53"/>
    </personinfo>
    <tripinfo id="Turati_10_0" depart="0.00" departLane="195_1" departPos="0.00" departSpeed="0.00" departDelay="0.00" arrival="196.00" arrivalLane="204[1][1]_2" arrivalPos="433.07" arrivalSpeed="11.56" duration="196.00" routeLength="2031.84" waitingTime="0.00" waitingCount="0" stopTime="0.00" timeLoss="25.91" rerouteNo="0" devices="tripinfo_Turati_10_0" vType="passenger4" speedFactor="0.89" vaporized=""/>
    <tripinfo id="Turati_10_1" depart="34.00" departLane="195_1" departPos="0.00" departSpeed="0.00" departDelay="0.00" arrival="196.00" arrivalLane="204[1][1]_1" arrivalPos="433.07" arrivalSpeed="14.81" duration="162.00" routeLength="2031.84" waitingTime="0.00" waitingCount="0" stopTime="0.00" timeLoss="21.54" rerouteNo="0" devices="tripinfo_Turati_10_1" vType="passenger1" speedFactor="1.07" vaporized=""/>
    <tripinfo id="Silvani_11_41" depart="96.00" departLane="203[0]_1" departPos="0.00" departSpeed="0.00" departDelay="0.00" arrival="196.00" arrivalLane="114_2" arrivalPos="694.55" arrivalSpeed="14.80" duration="100.00" routeLength="1114.58" waitingTime="4.00" waitingCount="1" stopTime="0.00" timeLoss="30.22" rerouteNo="0" devices="tripinfo_Silvani_11_41" vType="passenger1" speedFactor="1.16" vaporized=""/>
    <personinfo id="178" depart="89.00" type="DEFAULT_PEDTYPE" speedFactor="1.08" duration="109.00" waitingTime="0.00" timeLoss="9.51" traveltime="109.00">
        <walk depart="89.00" departPos="0.00" arrival="198.00" arrivalPos="135.22" duration="109.00" routeLength="148.58" timeLoss="9.51" maxSpeed="1.49"/>
    </personinfo>
    <tripinfo id="Togliatti_3_39" depart="55.00" departLane="85_1" departPos="0.00" departSpeed="0.00" departDelay="0.00" arrival="198.00" arrivalLane="14_1" arrivalPos="75.79" arrivalSpeed="13.03" duration="143.00" routeLength="1110.56" waitingTime="33.00" waitingCount="2" stopTime="0.00" timeLoss="59.09" rerouteNo="0" devices="tripinfo_Togliatti_3_39" vType="passenger2b" speedFactor="0.98" vaporized=""/>
    <tripinfo id="Silvani_11_43" depart="101.00" departLane="203[0]_1" departPos="0.00" departSpeed="0.00" departDelay="0.00" arrival="198.00" arrivalLane="114_2" arrivalPos="694.55" arrivalSpeed="13.60" duration="97.00" routeLength="1114.58" waitingTime="2.00" waitingCount="1" stopTime="0.00" timeLoss="20.97" rerouteNo="0" devices="tripinfo_Silvani_11_43" vType="passenger2b" speedFactor="1.07" vaporized=""/>
    <tripinfo id="Pepoli_11_5" depart="8.00" departLane="210_2" departPos="0.00" departSpeed="0.00" departDelay="0.00" arrival="199.00" arrivalLane="114_3" arrivalPos="694.55" arrivalSpeed="14.95" duration="191.00" routeLength="1737.76" waitingTime="61.00" waitingCount="2" stopTime="0.00" timeLoss="81.92" rerouteNo="0" devices="tripinfo_Pepoli_11_5" vType="passenger2a" speedFactor="1.15" vaporized=""/>
    <tripinfo id="Silvani_11_39" depart="92.00" departLane="203[0]_1" departPos="0.00" departSpeed="0.00" departDelay="0.00" arrival="199.00" arrivalLane="114_1" arrivalPos="694.55" arrivalSpeed="12.12" duration="107.00" routeLength="1114.58" waitingTime="5.00" waitingCount="1" stopTime="0.00" timeLoss="24.71" rerouteNo="0" devices="tripinfo_Silvani_11_39" vType="passenger2a" speedFactor="0.98" vaporized=""/>
    <tripinfo id="Togliatti_2_40" depart="57.00" departLane="85_1" departPos="0.00" departSpeed="0.00" departDelay="1.00" arrival="204.00" arrivalLane="77[1][1]_1" arrivalPos="462.90" arrivalSpeed="12.80" duration="147.00" routeLength="1147.14" waitingTime="32.00" waitingCount="3" stopTime="0.00" timeLoss="58.71" rerouteNo="0" devices="tripinfo_Togliatti_2_40" vType="passenger2b" speedFactor="0.96" vaporized=""/>
    <tripinfo id="Togliatti_3_56" depart="79.00" departLane="85_1" departPos="0.00" departSpeed="0.00" departDelay="0.00" arrival="205.00" arrivalLane="14_1" arrivalPos="75.79" arrivalSpeed="15.18" duration="126.00" routeLength="1110.56" waitingTime="18.00" waitingCount="3" stopTime="0.00" timeLoss="53.79" rerouteNo="0" devices="tripinfo_Togliatti_3_56" vType="passenger1" speedFactor="1.13" vaporized=""/>
    <tripinfo id="Pepoli_11_3" depart="5.00" departLane="210_2" departPos="0.00" departSpeed="0.00" departDelay="0.00" arrival="206.00" arrivalLane="114_1" arrivalPos="694.55" arrivalSpeed="12.98" duration="201.00" routeLength="1734.80" waitingTime="56.00" waitingCount="2" stopTime="0.00" timeLoss="76.56" rerouteNo="0" devices="tripinfo_Pepoli_11_3" vType="passenger1" speedFactor="1.01" vaporized=""/>